          ******************************************************
          *         GAMESS VERSION = 12 DEC 2003 (R2)          *
          *             FROM IOWA STATE UNIVERSITY             *
          * M.W.SCHMIDT, K.K.BALDRIDGE, J.A.BOATZ, S.T.ELBERT, *
          *   M.S.GORDON, J.H.JENSEN, S.KOSEKI, N.MATSUNAGA,   *
          *          K.A.NGUYEN, S.J.SU, T.L.WINDUS,           *
          *       TOGETHER WITH M.DUPUIS, J.A.MONTGOMERY       *
          *         J.COMPUT.CHEM.  14, 1347-1363(1993)        *
          **************** SPEC-CPU2006 VERSION ****************

     SINCE 1993, STUDENTS AND POSTDOCS WORKING AT IOWA STATE UNIVERSITY
     AND ALSO IN THEIR VARIOUS JOBS AFTER LEAVING ISU HAVE MADE IMPORTANT
     CONTRIBUTIONS TO THE CODE:
     IVANA ADAMOVIC, CHRISTINE AIKENS, ROB BELL, PRADIPTA BANDYOPADHYAY,
     BRETT BODE, GALINA CHABAN, WEI CHEN, CHEOL HO CHOI, PAUL DAY,
     TIM DUDLEY, DMITRI FEDOROV, GRAHAM FLETCHER, MARK FREITAG,
     KURT GLAESEMANN, GRANT MERRILL, HEATHER NETZLOFF, RYAN OLSON,
     MIKE PAK, JIM SHOEMAKER, TETSUYA TAKETSUGU, SIMON WEBB.

     ADDITIONAL CODE HAS BEEN PROVIDED BY COLLABORATORS IN OTHER GROUPS:
     IOWA STATE UNIVERSITY: JOE IVANIC, KLAUS RUEDENBERG
     UNIVERSITY OF TOKYO: KIMIHIKO HIRAO, HARUYUKI NAKANO, TAKAHITO
          NAKAJIMA, TAKAO TSUNEDA, MUNEAKI KAMIYA, SUSUMU YANAGISAWA
     ODENSE UNIVERSITY: FRANK JENSEN
     UNIVERSITY OF IOWA: VISVALDAS KAIRYS, HUI LI
     NATIONAL INST. OF STANDARDS AND TECHNOLOGY: WALT STEVENS, DAVID GARMER
     UNIVERSITY OF PISA: BENEDETTA MENNUCCI, JACOPO TOMASI
     UNIVERSITY OF MEMPHIS: HENRY KURTZ, PRAKASHAN KORAMBATH
     UNIVERSITY OF ALBERTA: MARIUSZ KLOBUKOWSKI
     UNIVERSITY OF NEW ENGLAND: MARK SPACKMAN
     MIE UNIVERSITY: HIROAKI UMEDA
     MICHIGAN STATE UNIVERSITY: KAROL KOWALSKI, PIOTR PIECUCH
     UNIVERSITY OF SILESIA: MONIKA MUSIAL, STANISLAW KUCHARSKI
     FACULTES UNIVERSITAIRES NOTRE-DAME DE LA PAIX:
          OLIVIER QUINET, BENOIT CHAMPAGNE
     UNIVERSITY OF CALIFORNIA - SANTA BARBARA: BERNARD KIRTMAN

 EXECUTION OF GAMESS BEGUN 

            ECHO OF THE FIRST FEW INPUT CARDS -
 INPUT CARD>! EXAM29.  surface scan                                                         
 INPUT CARD>!  The scan is done over a 3x3 grid centered on the SCF                         
 INPUT CARD>!  transition state for the endothermic SN2 type reaction                       
 INPUT CARD>!      F- + NH2OH -> F-NH2-OH anion -> FNH2 + OH-                               
 INPUT CARD>!                                                                               
 INPUT CARD>!  Groups 1 and 2 are F and OH, and their distance from                         
 INPUT CARD>!  the N is varied antisymmetrically, which is more or                          
 INPUT CARD>!  less what the IRC should be like.  The results seem to                       
 INPUT CARD>!  indicate that the MP2/3-21G saddle point would shift                         
 INPUT CARD>!  further into the product channel, since the higher                           
 INPUT CARD>!  MP2 energies occur at shorter r(NF) and longer r(NO):                        
 INPUT CARD>!                                                                               
 INPUT CARD>!  FINAL E= -229.0368324515, E(MP2)= -229.3873302282                            
 INPUT CARD>!  FINAL E= -229.0356378316, E(MP2)= -229.3866642594                            
 INPUT CARD>!  FINAL E= -229.0309266216, E(MP2)= -229.3822094678                            
 INPUT CARD>!  FINAL E= -229.0372146614, E(MP2)= -229.3923234983                            
 INPUT CARD>!  FINAL E= -229.0385440205, E(MP2)= -229.3936486561                            
 INPUT CARD>!  FINAL E= -229.0367369459, E(MP2)= -229.3913682976                            
 INPUT CARD>!  FINAL E= -229.0328601041, E(MP2)= -229.3918931911                            
 INPUT CARD>!  FINAL E= -229.0364643856, E(MP2)= -229.3948325418                            
 INPUT CARD>!  FINAL E= -229.0372478140, E(MP2)= -229.3943498039                            
 INPUT CARD>!                                                                               
 INPUT CARD>!  A more conclusive way to tell this would be to compute                       
 INPUT CARD>!  single point MP2 energies along the SCF IRC, since the                       
 INPUT CARD>!  true reaction path always curves, and thus does not lie                      
 INPUT CARD>!  along rectangular grid points.                                               
 INPUT CARD>!                                                                               
 INPUT CARD> $contrl scftyp=rhf runtyp=surface                                              
 INPUT CARD>         icharg=-1 coord=zmt mplevl=2 $end                                      
 INPUT CARD> $system memory=500000 timlim=30 $end                                           
 INPUT CARD> $surf   ivec1(1)=2,1 igrp1=1                                                   
 INPUT CARD>         ivec2(1)=2,5 igrp2(1)=5,6                                              
 INPUT CARD>         disp1= 0.10 ndisp1=3 orig1=-0.10                                       
 INPUT CARD>         disp2=-0.10 ndisp2=3 orig2= 0.10 $end                                  
 INPUT CARD> $basis  gbasis=n21 ngauss=3 $end                                               
 INPUT CARD> $guess  guess=huckel $end                                                      
 INPUT CARD> $data                                                                          
 INPUT CARD>F-NH2-OH exchange (inspired by J.Phys.Chem. 1994,98,7942-4)                     
 INPUT CARD>Cs                                                                              
 INPUT CARD>                                                                                
 INPUT CARD>F                                                                               
 INPUT CARD>N 1 rNF                                                                         
 INPUT CARD>H 2 rNH   1  aFNH                                                               
 INPUT CARD>H 2 rNH   1  aFNH   3 aHNH  +1                                                  
 INPUT CARD>O 2 rNO   3  aONH   4 aONH  -1                                                  
 INPUT CARD>H 5 rOH   2  aHON   1 180.0                                                     
 INPUT CARD>                                                                                
 INPUT CARD>rNF=1.7125469                                                                   
 INPUT CARD>rNH=0.9966981                                                                   
 INPUT CARD>rNO=1.9359887                                                                   

 ..... DONE SETTING UP THE RUN .....
LOCMEM is    1   1
     500000 WORDS OF MEMORY AVAILABLE

     BASIS OPTIONS
     -------------
     GBASIS=N21          IGAUSS=       3      POLAR=NONE    
     NDFUNC=       0     NFFUNC=       0     DIFFSP=       F
     NPFUNC=       0      DIFFS=       F


     RUN TITLE
     ---------
 F-NH2-OH exchange (inspired by J.Phys.Chem. 1994,98,7942-4)                     

 THE POINT GROUP OF THE MOLECULE IS CS      
 THE ORDER OF THE PRINCIPAL AXIS IS     0

 YOUR FULLY SUBSTITUTED Z-MATRIX IS
 F   
 N      1   1.7125469
 H      2   0.9966981  1   90.1849
 H      2   0.9966981  1   90.1849  3  108.5700  1
 O      2   1.9359887  3   79.3434  4   79.3434 -1
 H      5   0.9828978  2  100.7885  1  180.0000  0

 THE MOMENTS OF INERTIA ARE (AMU-ANGSTROM**2)
 IXX=     3.103   IYY=   119.201   IZZ=   119.665

 ATOM      ATOMIC                      COORDINATES (BOHR)
           CHARGE         X                   Y                   Z
 F           9.0     3.2294062787       -0.1045539737        0.0000000000
 N           7.0     0.0301704385        0.3834703492        0.0000000000
 H           1.0    -0.1416396910       -0.7025151675       -1.5292604046
 H           1.0    -0.1416396910       -0.7025151675        1.5292604046
 O           8.0    -3.5783718137       -0.2189899551        0.0000000000
 H           1.0    -4.2217645512        1.5234245953        0.0000000000

          INTERNUCLEAR DISTANCES (ANGS.)
          ------------------------------

                    F              N              H              H         

  1  F               0.0000000      1.7125469 *    1.9842486 *    1.9842486 *  
  2  N               1.7125469 *    0.0000000      0.9966981 *    0.9966981 *  
  3  H               1.9842486 *    0.9966981 *    0.0000000      1.6184996 *  
  4  H               1.9842486 *    0.9966981 *    1.6184996 *    0.0000000    
  5  O               3.6030302      1.9359887 *    2.0069400 *    2.0069400 *  
  6  H               4.0360048      2.3294889 *    2.5892327 *    2.5892327 *  

                    O              H         

  1  F               3.6030302      4.0360048    
  2  N               1.9359887 *    2.3294889 *  
  3  H               2.0069400 *    2.5892327 *  
  4  H               2.0069400 *    2.5892327 *  
  5  O               0.0000000      0.9828978 *  
  6  H               0.9828978 *    0.0000000    

  * ... LESS THAN  3.000


     ATOMIC BASIS SET
     ----------------
 THE CONTRACTED PRIMITIVE FUNCTIONS HAVE BEEN UNNORMALIZED
 THE CONTRACTED BASIS FUNCTIONS ARE NOW NORMALIZED TO UNITY

 SHELL TYPE PRIMITIVE    EXPONENT          CONTRACTION COEFFICIENTS

 F         

   1   S    1           413.8010000      0.058548302929
   1   S    2            62.2446000      0.349308017477
   1   S    3            13.4340000      0.709632035505

   2   L    4             9.7775900     -0.407326277682      0.246680003198
   2   L    5             2.0861700      1.223137830990      0.852321011049

   3   L    6             0.4823830      1.000000000000      1.000000000000

 N         

   4   S    7           242.7660000      0.059865700508
   4   S    8            36.4851000      0.352955002994
   4   S    9             7.8144900      0.706513005993

   5   L   10             5.4252200     -0.413300077430      0.237972016222
   5   L   11             1.1491500      1.224417266851      0.858953058551

   6   L   12             0.2832050      1.000000000000      1.000000000000

 H         

   9   S   13             5.4471780      0.156284978695
   9   S   14             0.8245472      0.904690876670

  10   S   15             0.1831916      1.000000000000

 O         

  11   S   16           322.0370000      0.059239393389
  11   S   17            48.4308000      0.351499960776
  11   S   18            10.4206000      0.707657921031

  12   L   19             7.4029400     -0.404453583190      0.244586106967
  12   L   20             1.5762000      1.221561761397      0.853955373466

  13   L   21             0.3736840      1.000000000000      1.000000000000

 H         

  14   S   22             5.4471780      0.156284978695
  14   S   23             0.8245472      0.904690876670

  15   S   24             0.1831916      1.000000000000

 TOTAL NUMBER OF BASIS SET SHELLS             =   15
 NUMBER OF CARTESIAN GAUSSIAN BASIS FUNCTIONS =   33
 NUMBER OF ELECTRONS                          =   28
 CHARGE OF MOLECULE                           =   -1
 SPIN MULTIPLICITY                            =    1
 NUMBER OF OCCUPIED ORBITALS (ALPHA)          =   14
 NUMBER OF OCCUPIED ORBITALS (BETA )          =   14
 TOTAL NUMBER OF ATOMS                        =    6
 THE NUCLEAR REPULSION ENERGY IS       69.6136930289

     $CONTRL OPTIONS
     ---------------
 SCFTYP=RHF          RUNTYP=SURFACE      EXETYP=RUN     
 MPLEVL=       2     CITYP =NONE         CCTYP =NONE    
 MULT  =       1     ICHARG=      -1     NZVAR =       0     COORD =ZMT     
 ECP   =NONE         RELWFN=NONE         LOCAL =NONE         NUMGRD=       F
 ISPHER=      -1     NOSYM =       0     MAXIT =      30     UNITS =ANGS    
 PLTORB=       F     MOLPLT=       F     AIMPAC=       F     FRIEND=        
 NPRINT=       7     IREST =       0     GEOM  =INPUT   
 NORMF =       0     NORMP =       0     ITOL  =      20     ICUT  =       9
 INTTYP=POPLE        QMTTOL= 1.0E-06

     $SYSTEM OPTIONS
     ---------------
  REPLICATED MEMORY=      500000 WORDS (ON EVERY NODE).
 DISTRIBUTED MEMDDI=           0 MILLION WORDS IN AGGREGATE,
 MEMDDI DISTRIBUTED OVER   1 PROCESSORS IS           0 WORDS/PROCESSOR.
 TOTAL MEMORY REQUESTED ON EACH PROCESSOR=      500000 WORDS.
 TIMLIM=      1800.0 SECONDS.
 COREFL=F     KDIAG= 0

          ----------------
          PROPERTIES INPUT
          ----------------

     MOMENTS            FIELD           POTENTIAL          DENSITY
 IEMOM =       1   IEFLD =       0   IEPOT =       0   IEDEN =       0
 WHERE =COMASS     WHERE =NUCLEI     WHERE =NUCLEI     WHERE =NUCLEI  
 OUTPUT=BOTH       OUTPUT=BOTH       OUTPUT=BOTH       OUTPUT=BOTH    
 IEMINT=       0   IEFINT=       0                     IEDINT=       0
                                                       MORB  =       0
          EXTRAPOLATION IN EFFECT
          SOSCF IN EFFECT

     -------------------------------
     INTEGRAL TRANSFORMATION OPTIONS
     -------------------------------
     NWORD  =       0     CUTOFF = 1.0E-09
     MPTRAN =       0     DIRTRF =       F
     AOINTS =DUP     

          ----------------------
          INTEGRAL INPUT OPTIONS
          ----------------------
 NOPK  =       1 NORDER=       0 SCHWRZ=       T

          -----------------------
          MP2 CONTROL INFORMATION
          -----------------------
          NACORE =        3  NBCORE =        3
          LMOMP2 =        F  AOINTS = DUP     
          METHOD =        2  NWORD  =          0
          MP2PRP =        F  OSPT   = NONE    
          CUTOFF = 1.00E-09  CPHFBS = BASISAO 

          NUMBER OF CORE -A-  ORBITALS =     3
          NUMBER OF CORE -B-  ORBITALS =     3
          NUMBER OF OCC. -A-  ORBITALS =    14
          NUMBER OF OCC. -B-  ORBITALS =    14
          NUMBER OF MOLECULAR ORBITALS =    33
          NUMBER OF   BASIS  FUNCTIONS =    33


   --- ENCODED Z MATRIX ---
 COORD  TYPE   I   J   K   L   M   N
    1      1    2   1
    2      1    4   2
    3      2    4   2   1
    4      1    3   2
    5      2    3   2   1
    6      2    3   2   4
    7      1    5   2
    8      2    5   2   4
    9      2    5   2   3
   10      1    6   5
   11      2    6   5   2
   12      3    6   5   2   1

 THE DETERMINANT OF THE G MATRIX IS 10**(    -8)

     ------------------------------------------
     THE POINT GROUP IS CS , NAXIS= 0, ORDER= 2
     ------------------------------------------

     DIMENSIONS OF THE SYMMETRY SUBSPACES ARE
 A'  =   25     A'' =    8

 ..... DONE SETTING UP THE RUN .....
 STEP CPU TIME =     0.00 TOTAL CPU TIME =        0.0 (    0.0 MIN)
 TOTAL WALL CLOCK TIME=        0.0 SECONDS, CPU UTILIZATION IS 100.00%

     ---------------------------
     POTENTIAL SURFACE MAP INPUT
     ---------------------------
 JOB 1 IS RUNTYP=ENERGY   SCFTYP=RHF       CITYP=NONE    
          MPLEVL=       2  CCTYP=NONE     DFTTYP=NONE    
 COORD 1 LYING ALONG ATOM PAIR    2    1
 HAS ORIGIN=-0.100, DISPLACEMENT= 0.100  AND  3 STEPS.
 GROUP 1 CONTAINS    1 ATOMS:
     1
 COORD 2 LYING ALONG ATOM PAIR    2    5
 HAS ORIGIN= 0.100, DISPLACEMENT=-0.100  AND  3 STEPS.
 GROUP 2 CONTAINS    2 ATOMS:
     5    6

 ATOM      ATOMIC                      COORDINATES (BOHR)
           CHARGE         X                   Y                   Z
 F           9.0     3.0425947035       -0.0760569835        0.0000000000
 N           7.0     0.0301704385        0.3834703492        0.0000000000
 H           1.0    -0.1416396910       -0.7025151675       -1.5292604046
 H           1.0    -0.1416396910       -0.7025151675        1.5292604046
 O           8.0    -3.7647645469       -0.2501089541        0.0000000000
 H           1.0    -4.4081572844        1.4923055963        0.0000000000

          INTERNUCLEAR DISTANCES (ANGS.)
          ------------------------------

                    F              N              H              H         

  1  F               0.0000000      1.6125469 *    1.8984440 *    1.8984440 *  
  2  N               1.6125469 *    0.0000000      0.9966981 *    0.9966981 *  
  3  H               1.8984440 *    0.9966981 *    0.0000000      1.6184996 *  
  4  H               1.8984440 *    0.9966981 *    1.6184996 *    0.0000000    
  5  O               3.6034769      2.0359887 *    2.0947896 *    2.0947896 *  
  6  H               4.0291719      2.4208496 *    2.6648185 *    2.6648185 *  

                    O              H         

  1  F               3.6034769      4.0291719    
  2  N               2.0359887 *    2.4208496 *  
  3  H               2.0947896 *    2.6648185 *  
  4  H               2.0947896 *    2.6648185 *  
  5  O               0.0000000      0.9828978 *  
  6  H               0.9828978 *    0.0000000    

  * ... LESS THAN  3.000


          ********************
          1 ELECTRON INTEGRALS
          ********************
 ...... END OF ONE-ELECTRON INTEGRALS ......
 STEP CPU TIME =     0.00 TOTAL CPU TIME =        0.0 (    0.0 MIN)
 TOTAL WALL CLOCK TIME=        0.0 SECONDS, CPU UTILIZATION IS 100.00%

          -------------
          GUESS OPTIONS
          -------------
          GUESS =HUCKEL            NORB  =       0          NORDER=       0
          MIX   =       F          PRTMO =       F          PUNMO =       F
          TOLZ  = 1.0E-08          TOLE  = 1.0E-05
          SYMDEN=       F          PURIFY=       F

 INITIAL GUESS ORBITALS GENERATED BY HUCKEL   ROUTINE.
 HUCKEL GUESS REQUIRES     13563 WORDS.

 SYMMETRIES FOR INITIAL GUESS ORBITALS FOLLOW.   BOTH SET(S).
    14 ORBITALS ARE OCCUPIED (    3 CORE ORBITALS).
     4=A'       5=A'       6=A'       7=A''      8=A'       9=A'      10=A'  
    11=A''     12=A''     13=A'      14=A'      15=A'      16=A''     17=A'  
    18=A'      19=A'      20=A'      21=A'      22=A'      23=A'      24=A'  
 ...... END OF INITIAL ORBITAL SELECTION ......
 STEP CPU TIME =     0.00 TOTAL CPU TIME =        0.0 (    0.0 MIN)
 TOTAL WALL CLOCK TIME=        0.0 SECONDS, CPU UTILIZATION IS 100.00%

          --------------------
          2 ELECTRON INTEGRALS
          --------------------

 THE -PK- OPTION IS OFF, THE INTEGRALS ARE NOT IN SUPERMATRIX FORM.
 STORING   15000 INTEGRALS/RECORD ON DISK, USING 12 BYTES/INTEGRAL.
 TWO ELECTRON INTEGRAL EVALUATION REQUIRES   59776 WORDS OF MEMORY.
 SCHWARZ INEQUALITY OVERHEAD:       529 INTEGRALS, T=        0.00
 II,JST,KST,LST =  1  1  1  1 NREC =         1 INTLOC =    1
 II,JST,KST,LST =  2  1  1  1 NREC =         1 INTLOC =    2
 II,JST,KST,LST =  3  1  1  1 NREC =         1 INTLOC =   34
 II,JST,KST,LST =  4  1  1  1 NREC =         1 INTLOC =  214
 II,JST,KST,LST =  5  1  1  1 NREC =         1 INTLOC =  449
 II,JST,KST,LST =  6  1  1  1 NREC =         1 INTLOC = 2585
 II,JST,KST,LST =  7  1  1  1 NREC =         1 INTLOC = 7245
 II,JST,KST,LST =  8  1  1  1 NREC =         1 INTLOC = 7245
 II,JST,KST,LST =  9  1  1  1 NREC =         1 INTLOC = 7245
 II,JST,KST,LST = 10  1  1  1 NREC =         1 INTLOC =10967
 II,JST,KST,LST = 11  1  1  1 NREC =         2 INTLOC =  978
 II,JST,KST,LST = 12  1  1  1 NREC =         2 INTLOC = 2387
 II,JST,KST,LST = 13  1  1  1 NREC =         2 INTLOC =12616
 II,JST,KST,LST = 14  1  1  1 NREC =         4 INTLOC = 3826
 II,JST,KST,LST = 15  1  1  1 NREC =         4 INTLOC = 9666
 SCHWARZ INEQUALITY TEST SKIPPED       954 INTEGRAL BLOCKS.
 TOTAL NUMBER OF NONZERO TWO-ELECTRON INTEGRALS =               63381
          5 INTEGRAL RECORDS WERE STORED ON DISK FILE  8.
  ...... END OF TWO-ELECTRON INTEGRALS .....

          --------------------------
                 RHF SCF CALCULATION
          --------------------------

     NUCLEAR ENERGY =        70.0382261096
     MAXIT =   30     NPUNCH=    2
     EXTRAP=T  DAMP=F  SHIFT=F  RSTRCT=F  DIIS=F  DEM=F  SOSCF=T
     DENSITY MATRIX CONV=  1.00E-05
     SOSCF WILL OPTIMIZE     266 ORBITAL ROTATIONS, SOGTOL=   0.250
     MEMORY REQUIRED FOR RHF STEP=     39149 WORDS.

 ITER EX DEM    TOTAL ENERGY       E CHANGE  DENSITY CHANGE     ORB. GRAD
   1  0  0     -228.438026762  -228.438026762   2.057216987   0.000000000
   2  1  0      -13.398272306   215.039754456   0.019611730   2.138165837
          ---------------START SECOND ORDER SCF---------------
   3  2  0      -13.404086244    -0.005813938   0.000644098   0.008801378
   4  3  0      -13.404093666    -0.000007422   0.000028154   0.000448854
   5  4  0      -13.404093683    -0.000000017   0.000000370   0.000004470
   6  5  0      -13.404093683    -0.000000000   0.000000008   0.000000051

          -----------------
          DENSITY CONVERGED
          -----------------
     TIME TO FORM FOCK OPERATORS=       0.0 SECONDS (       0.0 SEC/ITER)
     TIME TO SOLVE SCF EQUATIONS=       0.0 SECONDS (       0.0 SEC/ITER)

 FINAL RHF ENERGY IS      -13.4040936831 AFTER   6 ITERATIONS
 ...... END OF RHF CALCULATION ......
 STEP CPU TIME =     0.00 TOTAL CPU TIME =        0.0 (    0.0 MIN)
 TOTAL WALL CLOCK TIME=        0.0 SECONDS, CPU UTILIZATION IS 100.00%

 --------------------------   ----------------------------------------------
 RHF-MP2 ENERGY CALCULATION   PROGRAM WRITTEN BY M.DUPUIS,C.DANIEL,A.MARQUEZ
 --------------------------   ----------------------------------------------
 NCORE=    3   NOCC=   14   NMOS=   33   NAOS=   33
 INTEGRAL TRANSFORMATION CANNOT ASSIGN A DEFINITE ORBITAL SYMMETRY TO MO    1
 INTEGRAL TRANSFORMATION CANNOT ASSIGN A DEFINITE ORBITAL SYMMETRY TO MO    2
 INTEGRAL TRANSFORMATION CANNOT ASSIGN A DEFINITE ORBITAL SYMMETRY TO MO    3
 INTEGRAL TRANSFORMATION CANNOT ASSIGN A DEFINITE ORBITAL SYMMETRY TO MO    4
 INTEGRAL TRANSFORMATION CANNOT ASSIGN A DEFINITE ORBITAL SYMMETRY TO MO    5
 INTEGRAL TRANSFORMATION CANNOT ASSIGN A DEFINITE ORBITAL SYMMETRY TO MO    6
 INTEGRAL TRANSFORMATION CANNOT ASSIGN A DEFINITE ORBITAL SYMMETRY TO MO    7
 INTEGRAL TRANSFORMATION CANNOT ASSIGN A DEFINITE ORBITAL SYMMETRY TO MO    8
 INTEGRAL TRANSFORMATION CANNOT ASSIGN A DEFINITE ORBITAL SYMMETRY TO MO    9
 INTEGRAL TRANSFORMATION CANNOT ASSIGN A DEFINITE ORBITAL SYMMETRY TO MO   11
 INTEGRAL TRANSFORMATION CANNOT ASSIGN A DEFINITE ORBITAL SYMMETRY TO MO   12
 INTEGRAL TRANSFORMATION CANNOT ASSIGN A DEFINITE ORBITAL SYMMETRY TO MO   13
 INTEGRAL TRANSFORMATION CANNOT ASSIGN A DEFINITE ORBITAL SYMMETRY TO MO   14
 INTEGRAL TRANSFORMATION CANNOT ASSIGN A DEFINITE ORBITAL SYMMETRY TO MO   15
 INTEGRAL TRANSFORMATION CANNOT ASSIGN A DEFINITE ORBITAL SYMMETRY TO MO   16
 INTEGRAL TRANSFORMATION CANNOT ASSIGN A DEFINITE ORBITAL SYMMETRY TO MO   17
 INTEGRAL TRANSFORMATION CANNOT ASSIGN A DEFINITE ORBITAL SYMMETRY TO MO   18
 INTEGRAL TRANSFORMATION CANNOT ASSIGN A DEFINITE ORBITAL SYMMETRY TO MO   19
 INTEGRAL TRANSFORMATION CANNOT ASSIGN A DEFINITE ORBITAL SYMMETRY TO MO   20
 INTEGRAL TRANSFORMATION CANNOT ASSIGN A DEFINITE ORBITAL SYMMETRY TO MO   21
 INTEGRAL TRANSFORMATION CANNOT ASSIGN A DEFINITE ORBITAL SYMMETRY TO MO   22
 INTEGRAL TRANSFORMATION CANNOT ASSIGN A DEFINITE ORBITAL SYMMETRY TO MO   23
 INTEGRAL TRANSFORMATION CANNOT ASSIGN A DEFINITE ORBITAL SYMMETRY TO MO   24
 INTEGRAL TRANSFORMATION CANNOT ASSIGN A DEFINITE ORBITAL SYMMETRY TO MO   25
 INTEGRAL TRANSFORMATION CANNOT ASSIGN A DEFINITE ORBITAL SYMMETRY TO MO   26
 INTEGRAL TRANSFORMATION CANNOT ASSIGN A DEFINITE ORBITAL SYMMETRY TO MO   27
 INTEGRAL TRANSFORMATION CANNOT ASSIGN A DEFINITE ORBITAL SYMMETRY TO MO   29
 INTEGRAL TRANSFORMATION CANNOT ASSIGN A DEFINITE ORBITAL SYMMETRY TO MO   30


 ** ERROR **  THE MO-S ARE NOT SYMMETRICAL ENOUGH.

 YOU MUST TAKE ACTION TO RECOVER SYMMETRY, PERHAPS TO
 PROVIDE A SYMMETRY ADAPTED MO SET BY GUESS=MOREAD,
 OR ENTER NOSYM=1 TO USE THESE SYMMETRY BROKEN MO-S.

 EXECUTION OF GAMESS TERMINATED -ABNORMALLY- AT        (Ï*    ¸á*    
